Title: *Spice netlist for Circuit: D:\CIRMAKER\741.CIR
Date: Wed Nov 29 08:30:31  1995
Plotname: Operating Point
Flags: real
No. Variables: 28
No. Points: 1       
Command: version 3f5
Variables:
	0	V(3)	voltage
	1	V(4)	voltage
	2	V(5)	voltage
	3	V(6)	voltage
	4	V(7)	voltage
	5	V(8)	voltage
	6	V(9)	voltage
	7	V(10)	voltage
	8	V(11)	voltage
	9	V(12)	voltage
	10	V(13)	voltage
	11	V(14)	voltage
	12	V(15)	voltage
	13	V(16)	voltage
	14	V(17)	voltage
	15	V(18)	voltage
	16	V(19)	voltage
	17	V(20)	voltage
	18	V(21)	voltage
	19	V(22)	voltage
	20	@vee[i]	voltage
	21	@vcc[i]	voltage
	22	@vin[i]	voltage
	23	@ve[i]	voltage
	24	@vln[i]	voltage
	25	@vlp[i]	voltage
	26	@vc[i]	voltage
	27	@vb[i]	voltage
Values:
0		5.140963443106334e-004
	2.500000000000000e+001
	-2.500000000000000e+001
	-1.200000000000000e+001
	1.200000000000000e+001
	1.028370219276074e-002
	8.878590708710925e-006
	0.000000000000000e+000
	1.196048054265052e+001
	1.196048938298489e+001
	-4.616010909540342e-001
	-4.615980086656391e-001
	0.000000000000000e+000
	-4.754856662464665e-001
	-9.400000000000000e+000
	9.400000000000000e+000
	1.036081664440733e-002
	0.000000000000000e+000
	1.036081664440733e-002
	-6.586061095255026e-007
	1.335408860384581e-003
	-1.335181004934854e-003
	8.878590708710925e-010
	7.084411023819885e-009
	-7.100005816536204e-009
	-7.099999407804808e-009
	7.084388242454621e-009
	-6.586061100248564e-012
Title: *Spice netlist for Circuit: D:\CIRMAKER\741.CIR
Date: Wed Nov 29 08:30:31  1995
Plotname: Transient Analysis
Flags: real
No. Variables: 29
No. Points: 210     
Command: version 3f5
Variables:
	0	time	time
	1	V(3)	voltage
	2	V(4)	voltage
	3	V(5)	voltage
	4	V(6)	voltage
	5	V(7)	voltage
	6	V(8)	voltage
	7	V(9)	voltage
	8	V(10)	voltage
	9	V(11)	voltage
	10	V(12)	voltage
	11	V(13)	voltage
	12	V(14)	voltage
	13	V(15)	voltage
	14	V(16)	voltage
	15	V(17)	voltage
	16	V(18)	voltage
	17	V(19)	voltage
	18	V(20)	voltage
	19	V(21)	voltage
	20	V(22)	voltage
	21	@vee[i]	voltage
	22	@vcc[i]	voltage
	23	@vin[i]	voltage
	24	@ve[i]	voltage
	25	@vln[i]	voltage
	26	@vlp[i]	voltage
	27	@vc[i]	voltage
	28	@vb[i]	voltage
Values:
0		0.000000000000000e+000
	5.140963443106334e-004
	2.500000000000000e+001
	-2.500000000000000e+001
	-1.200000000000000e+001
	1.200000000000000e+001
	1.028370219276074e-002
	8.878590708710925e-006
	0.000000000000000e+000
	1.196048054265052e+001
	1.196048938298489e+001
	-4.616010909540342e-001
	-4.615980086656391e-001
	0.000000000000000e+000
	-4.754856662464665e-001
	-9.400000000000000e+000
	9.400000000000000e+000
	1.036081664440733e-002
	0.000000000000000e+000
	1.036081664440733e-002
	-6.586061095255026e-007
	1.335408860384581e-003
	-1.335181004934854e-003
	8.878590708710925e-010
	7.084411023819885e-009
	-7.100005816536204e-009
	-7.099999407804808e-009
	7.084388242454621e-009
	-6.586061100248564e-012
1		2.500000000000000e-008
	5.137389541716441e-004
	2.500000000000000e+001
	-2.500000000000000e+001
	-1.200000000000000e+001
	1.200000000000000e+001
	1.028411140142344e-002
	5.106023283370789e-005
	1.570795680830879e-004
	1.196050026372066e+001
	1.196049730194581e+001
	-4.615975149953350e-001
	-4.615594085668908e-001
	0.000000000000000e+000
	-4.754645796849134e-001
	-9.400000000000000e+000
	9.400000000000000e+000
	1.036117224454918e-002
	0.000000000000000e+000
	1.036117224454918e-002
	-2.313687652027733e-006
	1.335408882357827e-003
	-1.335177509268051e-003
	-1.060193352493800e-008
	7.106384270343485e-009
	-7.086801416559940e-009
	-7.113200118993323e-009
	7.062396324844138e-009
	-2.313687651173347e-011
2		5.000000000000000e-008
	5.132616909228261e-004
	2.500000000000000e+001
	-2.500000000000000e+001
	-1.200000000000000e+001
	1.200000000000000e+001
	1.028490310276668e-002
	1.068547947546737e-004
	3.141587485879563e-004
	1.196051897046024e+001
	1.196050562889004e+001
	-4.615901491215065e-001
	-4.615109860096822e-001
	0.000000000000000e+000
	-4.754366874100964e-001
	-9.400000000000000e+000
	9.400000000000000e+000
	1.036189235640511e-002
	0.000000000000000e+000
	1.036189235640511e-002
	-5.352801095036694e-006
	1.335408902896904e-003
	-1.335174091239106e-003
	-2.073039538332827e-008
	7.126923346730677e-009
	-7.082377769652283e-009
	-7.117628183064827e-009
	7.041839268834882e-009
	-5.352801095944375e-011
3		1.000000000000000e-007
	5.121829987531639e-004
	2.500000000000000e+001
	-2.500000000000000e+001
	-1.200000000000000e+001
	1.200000000000000e+001
	1.028727937316723e-002
	2.351243707409311e-004
	6.283143965558950e-004
	1.196054781028268e+001
	1.196052314038757e+001
	-4.615683878724227e-001
	-4.614044870613682e-001
	0.000000000000000e+000
	-4.753725617731611e-001
	-9.400000000000000e+000
	9.400000000000000e+000
	1.036410682298021e-002
	0.000000000000000e+000
	1.036410682298021e-002
	-1.251691529134949e-005
	1.335408945473432e-003
	-1.335168223401056e-003
	-3.931900258149639e-008
	7.169499875076659e-009
	-7.077784997487268e-009
	-7.122214672489047e-009
	6.999226801231637e-009
	-1.251691529125487e-010
4		2.000000000000000e-007
	5.091811672983356e-004
	2.500000000000000e+001
	-2.500000000000000e+001
	-1.200000000000000e+001
	1.200000000000000e+001
	1.029355762134574e-002
	5.663766471756949e-004
	1.256603988335261e-003
	1.196054888442885e+001
	1.196057965719871e+001
	-4.614899770487029e-001
	-4.611515907905804e-001
	0.000000000000000e+000
	-4.752069197510252e-001
	-9.400000000000000e+000
	9.400000000000000e+000
	1.036993479644049e-002
	0.000000000000000e+000
	1.036993479644049e-002
	-1.013861783332087e-005
	1.335408943865068e-003
	-1.335160987239551e-003
	-6.902273411595657e-008
	7.167891511313668e-009
	-7.066777347227576e-009
	-7.133224033027885e-009
	7.000837986716918e-009
	-1.013861783374821e-010
5		4.000000000000000e-007
	4.943909961711877e-004
	2.500000000000000e+001
	-2.500000000000000e+001
	-1.200000000000000e+001
	1.200000000000000e+001
	1.021574579003550e-002
	1.413917117803827e-003
	2.513009544333748e-003
	1.196035648028693e+001
	1.196082684434499e+001
	-4.612452316979881e-001
	-4.605473139603911e-001
	0.000000000000000e+000
	-4.747824381953487e-001
	-9.400000000000000e+000
	9.400000000000000e+000
	1.028990443946117e-002
	0.000000000000000e+000
	1.028990443946117e-002
	2.315659991130206e-004
	1.335407732271984e-003
	-1.335155314941993e-003
	-1.099092426529921e-007
	5.956300704524532e-009
	-6.996655202901256e-009
	-7.203352194654387e-009
	8.213422215634704e-009
	2.315659991148721e-009
6		8.000000000000000e-007
	3.757574899621704e-004
	2.500000000000000e+001
	-2.500000000000000e+001
	-1.200000000000000e+001
	1.200000000000000e+001
	8.584872466120400e-003
	3.383960199518543e-003
	5.024431817976955e-003
	1.195952725129502e+001
	1.196166624977407e+001
	-4.606097723393358e-001
	-4.591944017662713e-001
	0.000000000000000e+000
	-4.737883215880714e-001
	-9.400000000000000e+000
	9.400000000000000e+000
	8.641236089614725e-003
	0.000000000000000e+000
	8.641236089614725e-003
	1.934924592367257e-003
	1.335399041032379e-003
	-1.335162734179986e-003
	-1.640471618458413e-007
	-2.734941177526779e-009
	-6.655607360686005e-009
	-7.544398014765183e-009
	1.691158909607777e-008
	1.934924592366290e-008
7		1.179447381879749e-006
	9.451644637781634e-005
	2.500000000000000e+001
	-2.500000000000000e+001
	-1.200000000000000e+001
	1.200000000000000e+001
	3.873806711422971e-003
	5.212050565787683e-003
	7.403905287601188e-003
	1.195855169507274e+001
	1.196259148900083e+001
	-4.599790940497265e-001
	-4.579525026363164e-001
	0.000000000000000e+000
	-4.728520980192892e-001
	-9.400000000000000e+000
	9.400000000000000e+000
	3.887984178379644e-003
	0.000000000000000e+000
	3.887984178379644e-003
	4.608837614748174e-003
	1.335385339715393e-003
	-1.335182763332959e-003
	-2.191854721813506e-007
	-1.643625588629121e-008
	-6.175538349930045e-009
	-8.024471894745563e-009
	3.061712820501532e-008
	4.608837614744373e-008
8		1.808364436676949e-006
	-7.981248769218027e-004
	2.500000000000000e+001
	-2.500000000000000e+001
	-1.200000000000000e+001
	1.200000000000000e+001
	-1.257748908571450e-002
	7.577508704224961e-003
	1.133785647246693e-002
	1.195716469200848e+001
	1.196388939133983e+001
	-4.591152113699484e-001
	-4.563386978732663e-001
	0.000000000000000e+000
	-4.716133404887242e-001
	-9.400000000000000e+000
	9.400000000000000e+000
	-1.269720781725277e-002
	0.000000000000000e+000
	-1.269720781725277e-002
	9.130785006734353e-003
	1.335362112258396e-003
	-1.335217155604280e-003
	-3.760347768241971e-007
	-3.966371288323951e-008
	-5.403154571876213e-009
	-8.796821836434024e-009
	5.381162080910530e-008
	9.130785006742066e-008
9		2.644579160205866e-006
	-2.652095025330066e-003
	2.500000000000000e+001
	-2.500000000000000e+001
	-1.200000000000000e+001
	1.200000000000000e+001
	-4.842908574955045e-002
	9.378611012696117e-003
	1.654002222827692e-002
	1.195602278953620e+001
	1.196496638178010e+001
	-4.584141685182431e-001
	-4.551000169075781e-001
	0.000000000000000e+000
	-4.706435460568365e-001
	-9.400000000000000e+000
	9.400000000000000e+000
	-4.882690000334996e-002
	0.000000000000000e+000
	-4.882690000334996e-002
	1.335374415171452e-002
	1.335340322608412e-003
	-1.335246903099810e-003
	-7.161411215580803e-007
	-6.145336514483794e-008
	-4.702079882853325e-009
	-9.497750153850260e-009
	7.540126387955135e-008
	1.335374415173752e-007
10		4.317008607263700e-006
	-7.426100795802451e-003
	2.500000000000000e+001
	-2.500000000000000e+001
	-1.200000000000000e+001
	1.200000000000000e+001
	-1.431029695251162e-001
	1.036816769216587e-002
	2.679317511615583e-002
	1.195532643090430e+001
	1.196563809630472e+001
	-4.580063858154528e-001
	-4.544233849995199e-001
	0.000000000000000e+000
	-4.701013764747402e-001
	-9.400000000000000e+000
	9.400000000000000e+000
	-1.442168846444866e-001
	0.000000000000000e+000
	-1.442168846444866e-001
	1.631628981849685e-002
	1.335324785622952e-003
	-1.335264879287823e-003
	-1.642500742398996e-006
	-7.699035060451021e-008
	-4.225603669374284e-009
	-9.973784041604067e-009
	9.028029124338103e-008
	1.631628981850163e-007
11		6.401219609663099e-006
	-1.382229397959732e-002
	2.500000000000000e+001
	-2.500000000000000e+001
	-1.200000000000000e+001
	1.200000000000000e+001
	-2.711900391714095e-001
	9.986373484685030e-003
	3.914441833629052e-002
	1.195549019141654e+001
	1.196546352667269e+001
	-4.581361291629806e-001
	-4.546917871577110e-001
	0.000000000000000e+000
	-4.703004353773865e-001
	-9.400000000000000e+000
	9.400000000000000e+000
	-2.732633832683491e-001
	0.000000000000000e+000
	-2.732633832683491e-001
	1.590003729906768e-002
	1.335326494711041e-003
	-1.335263604461470e-003
	-2.915804485160549e-006
	-7.528126251560594e-008
	-4.305667996020158e-009
	-9.893098798267632e-009
	8.764702329509172e-008
	1.590003729905019e-007
12		8.414957021101375e-006
	-1.975236649476038e-002
	2.500000000000000e+001
	-2.500000000000000e+001
	-1.200000000000000e+001
	1.200000000000000e+001
	-3.900697381528924e-001
	9.456052329820852e-003
	5.044348747824703e-002
	1.195575455868300e+001
	1.196520477298706e+001
	-4.583209226012547e-001
	-4.550612737700604e-001
	0.000000000000000e+000
	-4.705775561210620e-001
	-9.400000000000000e+000
	9.400000000000000e+000
	-3.930325931271065e-001
	0.000000000000000e+000
	-3.930325931271065e-001
	1.506815261514439e-002
	1.335330519015206e-003
	-1.335258314051403e-003
	-4.098743514842619e-006
	-7.125695835151585e-008
	-4.454235694454094e-009
	-9.744161845258715e-009
	8.306210283861439e-008
	1.506815261512794e-007
13		1.091495702110137e-005
	-2.662837847245026e-002
	2.500000000000000e+001
	-2.500000000000000e+001
	-1.200000000000000e+001
	1.200000000000000e+001
	-5.279919204460436e-001
	8.654288206941640e-003
	6.332977429040930e-002
	1.195613810639568e+001
	1.196481890977893e+001
	-4.586116284745447e-001
	-4.556320482058614e-001
	0.000000000000000e+000
	-4.710082663074533e-001
	-9.400000000000000e+000
	9.400000000000000e+000
	-5.319861772169111e-001
	0.000000000000000e+000
	-5.319861772169111e-001
	1.389881014959028e-002
	1.335336216266725e-003
	-1.335252222810316e-003
	-5.467548608346766e-006
	-6.555970683221717e-008
	-4.664279014323967e-009
	-9.533661377776071e-009
	7.667986068740010e-008
	1.389881014957677e-007
14		1.341495702110137e-005
	-3.284636715814920e-002
	2.500000000000000e+001
	-2.500000000000000e+001
	-1.200000000000000e+001
	1.200000000000000e+001
	-6.528747282268100e-001
	7.624609717937709e-003
	7.465667188007094e-002
	1.195663467212769e+001
	1.196431881354923e+001
	-4.589799300179470e-001
	-4.563598220154495e-001
	0.000000000000000e+000
	-4.715562658549806e-001
	-9.400000000000000e+000
	9.400000000000000e+000
	-6.578016833005325e-001
	0.000000000000000e+000
	-6.578016833005325e-001
	1.236044238745313e-002
	1.335344040828602e-003
	-1.335244636151030e-003
	-6.703206216213324e-006
	-5.773514495524764e-008
	-4.940041890296283e-009
	-9.257773927038838e-009
	6.864950431823243e-008
	1.236044238749091e-007
15		1.591495702110137e-005
	-3.824373436864680e-002
	2.500000000000000e+001
	-2.500000000000000e+001
	-1.200000000000000e+001
	1.200000000000000e+001
	-7.614494489967554e-001
	6.400330559651704e-003
	8.414527443675660e-002
	1.195723209334453e+001
	1.196371991491160e+001
	-4.594147255193354e-001
	-4.572203848722692e-001
	0.000000000000000e+000
	-4.722038999726960e-001
	-9.400000000000000e+000
	9.400000000000000e+000
	-7.671860091520524e-001
	0.000000000000000e+000
	-7.671860091520524e-001
	1.050244252173691e-002
	1.335353577347416e-003
	-1.335235232308306e-003
	-7.774494387710490e-006
	-4.819862614131560e-008
	-5.270424454793239e-009
	-8.927367053126073e-009
	5.905998598965197e-008
	1.050244252172358e-007
16		1.841495702110137e-005
	-4.268511945690764e-002
	2.500000000000000e+001
	-2.500000000000000e+001
	-1.200000000000000e+001
	1.200000000000000e+001
	-8.509872606550002e-001
	5.025787180955729e-003
	9.156194107465421e-002
	1.195790528800523e+001
	1.196304222322836e+001
	-4.598949404029732e-001
	-4.581787870429584e-001
	0.000000000000000e+000
	-4.729231584549575e-001
	-9.400000000000000e+000
	9.400000000000000e+000
	-8.573900285735363e-001
	0.000000000000000e+000
	-8.573900285735363e-001
	8.386407590357685e-003
	1.335364682315364e-003
	-1.335225142382624e-003
	-8.653615389369847e-006
	-3.709365819322453e-008
	-5.646393139737780e-009
	-8.551700662333492e-009
	4.840489472594223e-008
	8.386407590344064e-008
17		2.091495702110137e-005
	-4.606242297664462e-002
	2.500000000000000e+001
	-2.500000000000000e+001
	-1.200000000000000e+001
	1.200000000000000e+001
	-9.193104035559049e-001
	3.526143855772688e-003
	9.672404884663342e-002
	1.195864391897636e+001
	1.196230205013120e+001
	-4.604109554598907e-001
	-4.592164011366639e-001
	0.000000000000000e+000
	-4.736999189844627e-001
	-9.400000000000000e+000
	9.400000000000000e+000
	-9.262197670024016e-001
	0.000000000000000e+000
	-9.262197670024016e-001
	6.064871658660413e-003
	1.335376890349245e-003
	-1.335213687029801e-003
	-9.319790499086074e-006
	-2.488562431201878e-008
	-6.056838351769940e-009
	-8.141637632481402e-009
	3.675573443320798e-008
	6.064871658677487e-008
18		2.341495702110137e-005
	-4.829212758834828e-002
	2.500000000000000e+001
	-2.500000000000000e+001
	-1.200000000000000e+001
	1.200000000000000e+001
	-9.647297766974343e-001
	1.943532758394408e-003
	9.950448952729460e-002
	1.195942612933688e+001
	1.196151523272798e+001
	-4.609455459810569e-001
	-4.603010131571533e-001
	0.000000000000000e+000
	-4.745094639283949e-001
	-9.400000000000000e+000
	9.400000000000000e+000
	-9.719735958356865e-001
	0.000000000000000e+000
	-9.719735958356865e-001
	3.587749024716351e-003
	1.335390080269314e-003
	-1.335202018007809e-003
	-9.756095676890020e-006
	-1.169570424277043e-008
	-6.494677339330972e-009
	-7.704433562070492e-009
	2.450772001964898e-008
	3.587749024713241e-008
19		2.591495702110137e-005
	-4.931937797752525e-002
	2.500000000000000e+001
	-2.500000000000000e+001
	-1.200000000000000e+001
	1.200000000000000e+001
	-9.861268847381539e-001
	3.130829172567802e-004
	9.983479943932630e-002
	1.196023506732033e+001
	1.196070511572772e+001
	-4.614859868701664e-001
	-4.614080735642669e-001
	0.000000000000000e+000
	-4.753331572651875e-001
	-9.400000000000000e+000
	9.400000000000000e+000
	-9.935247914347827e-001
	0.000000000000000e+000
	-9.935247914347827e-001
	1.025295088773906e-003
	1.335403690645545e-003
	-1.335189476043460e-003
	-9.952171652206952e-006
	1.914671988182995e-009
	-6.945778612272313e-009
	-7.253962231965011e-009
	1.181758213673133e-008
	1.025295088776251e-008
20		2.841495702110137e-005
	-4.911936031284685e-002
	2.500000000000000e+001
	-2.500000000000000e+001
	-1.200000000000000e+001
	1.200000000000000e+001
	-9.829851402151913e-001
	-1.322817862559396e-003
	9.770684525645856e-002
	1.196104876882901e+001
	1.195988775352980e+001
	-4.620176756465475e-001
	-4.625072217967922e-001
	0.000000000000000e+000
	-4.761485190380191e-001
	-9.400000000000000e+000
	9.400000000000000e+000
	-9.903530442621183e-001
	0.000000000000000e+000
	-9.903530442621183e-001
	-1.565212674735116e-003
	1.335417545806178e-003
	-1.335177219832564e-003
	-9.902966311901797e-006
	1.576983262133851e-008
	-7.402006640381353e-009
	-6.798487759706804e-009
	-8.986877312427995e-010
	-1.565212674732497e-008
21		3.091495702110137e-005
	-4.769720907803905e-002
	2.500000000000000e+001
	-2.500000000000000e+001
	-1.200000000000000e+001
	1.200000000000000e+001
	-9.553855184729462e-001
	-2.927137176053150e-003
	9.317302427294863e-002
	1.196184896566938e+001
	1.195908754635206e+001
	-4.625287816274771e-001
	-4.635743340520373e-001
	0.000000000000000e+000
	-4.769375732549244e-001
	-9.400000000000000e+000
	9.400000000000000e+000
	-9.625400998346521e-001
	0.000000000000000e+000
	-9.625400998346521e-001
	-4.113717519514326e-003
	1.335431069022372e-003
	-1.335164617394942e-003
	-9.610016144900180e-006
	2.929304881452643e-008
	-7.849302988918659e-009
	-6.351804342163901e-009
	-1.350242450772586e-008
	-4.113717519509867e-008
22		3.341495702110137e-005
	-4.508844120252714e-002
	2.500000000000000e+001
	-2.500000000000000e+001
	-1.200000000000000e+001
	1.200000000000000e+001
	-9.040177765164649e-001
	-4.458967898370952e-003
	8.634497420829969e-002
	1.196261456021307e+001
	1.195832028638619e+001
	-4.630075732898432e-001
	-4.645823108684347e-001
	0.000000000000000e+000
	-4.776809057743694e-001
	-9.400000000000000e+000
	9.400000000000000e+000
	-9.107810426968439e-001
	0.000000000000000e+000
	-9.107810426968439e-001
	-6.560135570570060e-003
	1.335444054357297e-003
	-1.335152749563372e-003
	-9.080394210667066e-006
	4.227838373988038e-008
	-8.279225883320942e-009
	-5.922486561067306e-009
	-2.557955885231538e-008
	-6.560135570546781e-008
23		3.591495702110137e-005
	-4.135743448556788e-002
	2.500000000000000e+001
	-2.500000000000000e+001
	-1.200000000000000e+001
	1.200000000000000e+001
	-8.301495678199015e-001
	-5.883105071850834e-003
	7.739082431610234e-002
	1.196332819326244e+001
	1.195760867297000e+001
	-4.634444266429427e-001
	-4.655101851515941e-001
	0.000000000000000e+000
	-4.783632221179742e-001
	-9.400000000000000e+000
	9.400000000000000e+000
	-8.363531829927366e-001
	0.000000000000000e+000
	-8.363531829927366e-001
	-8.841360229764672e-003
	1.335455973603650e-003
	-1.335141060079497e-003
	-8.327392938795317e-006
	5.419763009286721e-008
	-8.678824911058401e-009
	-5.523212780029848e-009
	-3.701522430635123e-008
	-8.841360229755089e-008
24		3.841495702110137e-005
	-3.659627941511148e-002
	2.500000000000000e+001
	-2.500000000000000e+001
	-1.200000000000000e+001
	1.200000000000000e+001
	-7.356043003296903e-001
	-7.163102642511689e-003
	6.653105548382220e-002
	1.196397132357617e+001
	1.195696659743951e+001
	-4.638306648250919e-001
	-4.663356816281729e-001
	0.000000000000000e+000
	-4.789690472949516e-001
	-9.400000000000000e+000
	9.400000000000000e+000
	-7.410937422419570e-001
	0.000000000000000e+000
	-7.410937422419570e-001
	-1.090346215053408e-002
	1.335466699950038e-003
	-1.335130562145140e-003
	-7.369415812633390e-006
	6.492397648147477e-008
	-9.040535505065532e-009
	-5.161740366587322e-009
	-4.738059824518694e-008
	-1.090346215054418e-007
25		4.091495702110137e-005
	-3.092203483869242e-002
	2.500000000000000e+001
	-2.500000000000000e+001
	-1.200000000000000e+001
	1.200000000000000e+001
	-6.227067691415804e-001
	-8.268932661040264e-003
	5.403307126161645e-002
	1.196452939169993e+001
	1.195641305596758e+001
	-4.641592453041626e-001
	-4.670425718492846e-001
	0.000000000000000e+000
	-4.794867466243176e-001
	-9.400000000000000e+000
	9.400000000000000e+000
	-6.273450743673843e-001
	0.000000000000000e+000
	-6.273450743673843e-001
	-1.269536044177496e-002
	1.335475781828810e-003
	-1.335120765417091e-003
	-6.230200392265672e-006
	7.400585525349834e-008
	-9.353434974931664e-009
	-4.848729913798077e-009
	-5.660843703607694e-008
	-1.269536044181425e-007
26		4.341495702110137e-005
	-2.447422641642136e-002
	2.500000000000000e+001
	-2.500000000000000e+001
	-1.200000000000000e+001
	1.200000000000000e+001
	-4.942329216653680e-001
	-9.171519490323677e-003
	4.020461349946735e-002
	1.196498782607761e+001
	1.195595853457752e+001
	-4.644243585568023e-001
	-4.676143153117807e-001
	0.000000000000000e+000
	-4.799051458703076e-001
	-9.400000000000000e+000
	9.400000000000000e+000
	-4.979040556278312e-001
	0.000000000000000e+000
	-4.979040556278312e-001
	-1.417454644063583e-002
	1.335483182284789e-003
	-1.335112583928183e-003
	-4.937613298979103e-006
	8.140631123154298e-008
	-9.611851736650187e-009
	-4.590111300041919e-009
	-6.429815924427228e-008
	-1.417454644062411e-007
27		4.591495702110137e-005
	-1.741117906514719e-002
	2.500000000000000e+001
	-2.500000000000000e+001
	-1.200000000000000e+001
	1.200000000000000e+001
	-3.533377997987999e-001
	-9.849263173525764e-003
	2.538618472149911e-002
	1.196533632513065e+001
	1.195561687337339e+001
	-4.646214996809483e-001
	-4.680403567067169e-001
	0.000000000000000e+000
	-4.802167154513152e-001
	-9.400000000000000e+000
	9.400000000000000e+000
	-3.559494766585720e-001
	0.000000000000000e+000
	-3.559494766585720e-001
	-1.530566597479860e-002
	1.335488562619511e-003
	-1.335105591089170e-003
	-3.523544789502487e-006
	8.678664595410886e-008
	-9.807601204698200e-009
	-4.393857190575107e-009
	-7.043164813877151e-008
	-1.530566597481468e-007
28		4.841495702110137e-005
	-9.906421978146342e-003
	2.500000000000000e+001
	-2.500000000000000e+001
	-1.200000000000000e+001
	1.200000000000000e+001
	-2.034826718791209e-001
	-1.028342201806232e-002
	9.942663823770834e-003
	1.196556544759956e+001
	1.195539390361309e+001
	-4.647474688032782e-001
	-4.683104757409687e-001
	0.000000000000000e+000
	-4.804147457509614e-001
	-9.400000000000000e+000
	9.400000000000000e+000
	-2.049686351758428e-001
	0.000000000000000e+000
	-2.049686351758428e-001
	-1.606166582377982e-002
	1.335491994754469e-003
	-1.335100590877241e-003
	-2.022608584183315e-006
	9.021878091192607e-008
	-9.937652048054031e-009
	-4.263261594926320e-009
	-7.465861530024940e-008
	-1.606166582379596e-007
29		5.091495702110137e-005
	-2.144339156769621e-003
	2.500000000000000e+001
	-2.500000000000000e+001
	-1.200000000000000e+001
	1.200000000000000e+001
	-4.834963712390606e-002
	-1.046366807543959e-002
	-5.745678455108063e-003
	1.196567019212691e+001
	1.195529736585637e+001
	-4.648001474336769e-001
	-4.684203185413815e-001
	0.000000000000000e+000
	-4.804960008127646e-001
	-9.400000000000000e+000
	9.400000000000000e+000
	-4.867128799742150e-002
	0.000000000000000e+000
	-4.867128799742150e-002
	-1.642483110542706e-002
	1.335493254880271e-003
	-1.335097190990034e-003
	-4.717989620331527e-007
	9.147890671380173e-008
	-9.997075031483799e-009
	-4.203100746503390e-009
	-7.702711245638221e-008
	-1.642483110542728e-007
30		5.341495702110137e-005
	5.684145592726285e-003
	2.500000000000000e+001
	-2.500000000000000e+001
	-1.200000000000000e+001
	1.200000000000000e+001
	1.082459840124603e-001
	-1.038392469068141e-002
	-2.129254306160867e-002
	1.196564705111639e+001
	1.195532760398314e+001
	-4.647787589017063e-001
	-4.683663332260907e-001
	0.000000000000000e+000
	-4.804583165111498e-001
	-9.400000000000000e+000
	9.400000000000000e+000
	1.090986058513692e-001
	0.000000000000000e+000
	1.090986058513692e-001
	-1.638577804488341e-002
	1.335492522665110e-003
	-1.335096065715390e-003
	1.090861837092726e-006
	9.074669155236316e-008
	-9.986026130969084e-009
	-4.213492707949668e-009
	-7.726045342564552e-008
	-1.638577804487910e-007
31		5.591495702110137e-005
	1.338632213791069e-002
	2.500000000000000e+001
	-2.500000000000000e+001
	-1.200000000000000e+001
	1.200000000000000e+001
	2.624491339129975e-001
	-1.004694248134287e-002
	-3.631511459203349e-002
	1.196549697582816e+001
	1.195548578029894e+001
	-4.646835145840392e-001
	-4.681506873672939e-001
	0.000000000000000e+000
	-4.803028822377963e-001
	-9.400000000000000e+000
	9.400000000000000e+000
	2.644570822336841e-001
	0.000000000000000e+000
	2.644570822336841e-001
	-1.594544384992254e-002
	1.335489678148526e-003
	-1.335096814226667e-003
	2.626817211069063e-006
	8.790217496857346e-008
	-9.903085273034483e-009
	-4.295707791141629e-009
	-7.549384141159428e-008
	-1.594544384996344e-007
32		5.841495702110137e-005
	2.077233373419080e-002
	2.500000000000000e+001
	-2.500000000000000e+001
	-1.200000000000000e+001
	1.200000000000000e+001
	4.104592792049399e-001
	-9.460231633553182e-003
	-5.044348747824700e-002
	1.196522278775963e+001
	1.195576639597084e+001
	-4.645160350003785e-001
	-4.677766675852693e-001
	0.000000000000000e+000
	-4.800321513919905e-001
	-9.400000000000000e+000
	9.400000000000000e+000
	4.135751292650685e-001
	0.000000000000000e+000
	4.135751292650685e-001
	-1.511317641011495e-002
	1.335484995749701e-003
	-1.335099952594036e-003
	4.098325584469382e-006
	8.321977614381767e-008
	-9.751870123669454e-009
	-4.446435506149508e-009
	-7.154768173851112e-008
	-1.511317641008146e-007
33		6.091495702110137e-005
	2.765996032224445e-002
	2.500000000000000e+001
	-2.500000000000000e+001
	-1.200000000000000e+001
	1.200000000000000e+001
	5.486246717373148e-001
	-8.639670662893641e-003
	-6.332977429040929e-002
	1.196483155365457e+001
	1.195616407940782e+001
	-4.642789456499192e-001
	-4.672530621350530e-001
	0.000000000000000e+000
	-4.796518304538003e-001
	-9.400000000000000e+000
	9.400000000000000e+000
	5.527736657856515e-001
	0.000000000000000e+000
	5.527736657856515e-001
	-1.390880976133379e-002
	1.335478441522540e-003
	-1.335105025273445e-003
	5.469010362751564e-006
	7.666554898280232e-008
	-9.534460871841812e-009
	-4.663404902945333e-009
	-6.566447927732945e-008
	-1.390880976135946e-007
34		6.341495702110136e-005
	3.387911707355389e-002
	2.500000000000000e+001
	-2.500000000000000e+001
	-1.200000000000000e+001
	1.200000000000000e+001
	6.735338784578431e-001
	-7.605363848230110e-003
	-7.465667188007090e-002
	1.196433226757674e+001
	1.195666770651822e+001
	-4.639763799246627e-001
	-4.665899055471924e-001
	0.000000000000000e+000
	-4.791690028916430e-001
	-9.400000000000000e+000
	9.400000000000000e+000
	6.786157460188762e-001
	0.000000000000000e+000
	6.786157460188762e-001
	-1.236034004602778e-002
	1.335470366109022e-003
	-1.335112364816733e-003
	6.705130803184079e-006
	6.859013546498086e-008
	-9.257774876698413e-009
	-4.939968691340479e-009
	-5.777937452482250e-008
	-1.236034004601493e-007
35		6.591495702110137e-005
	3.927619571805385e-002
	2.500000000000000e+001
	-2.500000000000000e+001
	-1.200000000000000e+001
	1.200000000000000e+001
	7.821014725586630e-001
	-6.384439831857993e-003
	-8.414527443675657e-002
	1.196373763570020e+001
	1.195726602744797e+001
	-4.636135501730319e-001
	-4.658023634751914e-001
	0.000000000000000e+000
	-4.785938569975963e-001
	-9.400000000000000e+000
	9.400000000000000e+000
	7.879929019163711e-001
	0.000000000000000e+000
	7.879929019163711e-001
	-1.050551313875468e-002
	1.335460801003242e-003
	-1.335121427906285e-003
	7.776083460489858e-006
	5.902502968438841e-008
	-8.927099031599641e-009
	-5.270630612278121e-009
	-4.825266134591543e-008
	-1.050551313875563e-007
36		6.841495702110138e-005
	4.371790217830768e-002
	2.500000000000000e+001
	-2.500000000000000e+001
	-1.200000000000000e+001
	1.200000000000000e+001
	8.716464057429797e-001
	-5.006895279886359e-003
	-9.156194107465421e-002
	1.196306198018957e+001
	1.195794315762853e+001
	-4.631972636757932e-001
	-4.649067212115656e-001
	0.000000000000000e+000
	-4.779379382549841e-001
	-9.400000000000000e+000
	9.400000000000000e+000
	8.782040910697259e-001
	0.000000000000000e+000
	8.782040910697259e-001
	-8.389172623406792e-003
	1.335450152404878e-003
	-1.335132358729645e-003
	8.655504579476784e-006
	4.837643132089494e-008
	-8.552166079347189e-009
	-5.645887365330522e-009
	-3.713650809508088e-008
	-8.389172623401702e-008
37		7.091495702110138e-005
	4.709466303627735e-002
	2.500000000000000e+001
	-2.500000000000000e+001
	-1.200000000000000e+001
	1.200000000000000e+001
	9.399592865048372e-001
	-3.507866234085355e-003
	-9.672404884663344e-002
	1.196232246278525e+001
	1.195868325272554e+001
	-4.627354627472119e-001