Title: *Spice netlist for Circuit: C:\CM30\ANALOG.CIR
Date: Thu Jul 06 16:44:42  1995
Plotname: AC Analysis
Flags: complex
No. Variables: 9
No. Points: 100     
Command: version 3f5
Variables:
	0	frequency	frequency
	1	V(3)	voltage
	2	V(4)	voltage
	3	V(5)	voltage
	4	V(6)	voltage
	5	V(7)	voltage
	6	@vee[i]	voltage
	7	@vcc[i]	voltage
	8	@vin[i]	voltage
Values:
0		1.000000000000000e+000,1.570044181601495e-117
	0.000000000000000e+000,0.000000000000000e+000
	0.000000000000000e+000,0.000000000000000e+000
	-4.654501399032075e-006,-9.211456948294133e-007
	9.999483333163450e-001,-1.022505723701942e-005
	-1.000000000000000e-001,0.000000000000000e+000
	9.999483333234692e-013
	1.116264262764372e-012
	9.999534549860097e-006
1		1.010200000000000e+004,1.570044181601495e-117
	0.000000000000000e+000,0.000000000000000e+000
	0.000000000000000e+000,0.000000000000000e+000
	-9.131393219935444e-004,-9.216065343999876e-003
	9.898638164546898e-001,-1.023017272634095e-001
	-1.000000000000000e-001,0.000000000000000e+000
	9.898638164617425e-013
	2.380920359985171e-011
	9.908686067800646e-006
2		2.020300000000000e+004,1.570044181601495e-117
	0.000000000000000e+000,0.000000000000000e+000
	0.000000000000000e+000,0.000000000000000e+000
	-3.536747972711212e-003,-1.791518354927017e-002
	9.607407919673669e-001,-1.988651504638559e-001
	-1.000000000000000e-001,0.000000000000000e+000
	9.607407919742123e-013
	8.934402664267317e-011
	9.646325202728880e-006
3		3.030400000000000e+004,1.570044181601495e-117
	0.000000000000000e+000,0.000000000000000e+000
	0.000000000000000e+000,0.000000000000000e+000
	-7.598131253516389e-003,-2.567409626306572e-002
	9.156579383539555e-001,-2.849919456465703e-001
	-1.000000000000000e-001,0.000000000000000e+000
	9.156579383604793e-013
	1.907928591676603e-010
	9.240186874648361e-006
4		4.040500000000000e+004,1.570044181601495e-117
	0.000000000000000e+000,0.000000000000000e+000
	0.000000000000000e+000,0.000000000000000e+000
	-1.271261329116746e-002,-3.221992139694799e-002
	8.588852998046081e-001,-3.576530208996704e-001
	-1.000000000000000e-001,0.000000000000000e+000
	8.588852998107275e-013
	3.185469261481256e-010
	8.728738670883254e-006
5		5.050600000000000e+004,1.570044181601495e-117
	0.000000000000000e+000,0.000000000000000e+000
	0.000000000000000e+000,0.000000000000000e+000
	-1.846898719542403e-002,-3.744411711195629e-002
	7.949874245916804e-001,-4.156435217441485e-001
	-1.000000000000000e-001,0.000000000000000e+000
	7.949874245973443e-013
	4.623347372918203e-010
	8.153101280457597e-006
6		6.060700000000000e+004,1.570044181601495e-117
	0.000000000000000e+000,0.000000000000000e+000
	0.000000000000000e+000,0.000000000000000e+000
	-2.449515784458482e-002,-4.137679800453007e-002
	7.280947059192363e-001,-4.592977313168254e-001
	-1.000000000000000e-001,0.000000000000000e+000
	7.280947059244238e-013
	6.128617707392625e-010
	7.550484215541518e-006
7		7.070800000000000e+004,1.570044181601495e-117
	0.000000000000000e+000,0.000000000000000e+000
	0.000000000000000e+000,0.000000000000000e+000
	-3.049541625335760e-002,-4.414185046349512e-002
	6.614896226804348e-001,-4.899908342644219e-001
	-1.000000000000000e-001,0.000000000000000e+000
	6.614896226851476e-013
	7.627415452717617e-010
	6.950458374664240e-006
8		8.080900000000000e+004,1.570044181601495e-117
	0.000000000000000e+000,0.000000000000000e+000
	0.000000000000000e+000,0.000000000000000e+000
	-3.626066978960584e-002,-4.591133119054568e-002
	5.974931802753137e-001,-5.096327234878280e-001
	-1.000000000000000e-001,0.000000000000000e+000
	5.974931802795710e-013
	9.067511597373810e-010
	6.373933021039416e-006
9		9.091000000000000e+004,1.570044181601495e-117
	0.000000000000000e+000,0.000000000000000e+000
	0.000000000000000e+000,0.000000000000000e+000
	-4.166058956763949e-002,-4.686983273882356e-002
	5.375520774439324e-001,-5.202724444664176e-001
	-1.000000000000000e-001,0.000000000000000e+000
	5.375520774477625e-013
	1.041635143671578e-009
	5.833941043236052e-006
10		1.010110000000000e+005,1.570044181601495e-117
	0.000000000000000e+000,0.000000000000000e+000
	0.000000000000000e+000,0.000000000000000e+000
	-4.662738517222671e-002,-4.719171448410182e-002
	4.824188128191507e-001,-5.238454506333518e-001
	-1.000000000000000e-001,0.000000000000000e+000
	4.824188128225879e-013
	1.165700167985486e-009
	5.337261482777330e-006
11		1.111120000000000e+005,1.570044181601495e-117
	0.000000000000000e+000,0.000000000000000e+000
	0.000000000000000e+000,0.000000000000000e+000
	-5.113816022735915e-002,-4.702944087474466e-002
	4.323475446265049e-001,-5.220441536453784e-001
	-1.000000000000000e-001,0.000000000000000e+000
	4.323475446295855e-013
	1.278374306693134e-009
	4.886183977264086e-006
12		1.212130000000000e+005,1.570044181601495e-117
	0.000000000000000e+000,0.000000000000000e+000
	0.000000000000000e+000,0.000000000000000e+000
	-5.519952634642721e-002,-4.650966449529017e-002
	3.872648815167858e-001,-5.162744439427234e-001
	-1.000000000000000e-001,0.000000000000000e+000
	3.872648815195450e-013
	1.379822710537710e-009
	4.480047365357279e-006
13		1.313140000000000e+005,1.570044181601495e-117
	0.000000000000000e+000,0.000000000000000e+000
	0.000000000000000e+000,0.000000000000000e+000
	-5.883574493084561e-002,-4.573387681041231e-002
	3.469015129785669e-001,-5.076629142472816e-001
	-1.000000000000000e-001,0.000000000000000e+000
	3.469015129810386e-013
	1.470651402313465e-009
	4.116425506915439e-006
14		1.414150000000000e+005,1.570044181601495e-117
	0.000000000000000e+000,0.000000000000000e+000
	0.000000000000000e+000,0.000000000000000e+000
	-6.208032817376659e-002,-4.478129290043347e-002
	3.108854412973475e-001,-4.970888811916609e-001
	-1.000000000000000e-001,0.000000000000000e+000
	3.108854412995627e-013
	1.551697479291102e-009
	3.791967182623342e-006
15		1.515160000000000e+005,1.570044181601495e-117
	0.000000000000000e+000,0.000000000000000e+000
	0.000000000000000e+000,0.000000000000000e+000
	-6.497047759559539e-002,-4.371250616867271e-002
	2.788037158642608e-001,-4.852249539198274e-001
	-1.000000000000000e-001,0.000000000000000e+000
	2.788037158662473e-013
	1.623890194040441e-009
	3.502952240440462e-006
16		1.616170000000000e+005,1.570044181601495e-117
	0.000000000000000e+000,0.000000000000000e+000
	0.000000000000000e+000,0.000000000000000e+000
	-6.754362843328526e-002,-4.257311108400212e-002
	2.502407917304838e-001,-4.725772478667600e-001
	-1.000000000000000e-001,0.000000000000000e+000
	2.502407917322667e-013
	1.688164637089276e-009
	3.245637156671474e-006
17		1.717180000000000e+005,1.570044181601495e-117
	0.000000000000000e+000,0.000000000000000e+000
	0.000000000000000e+000,0.000000000000000e+000
	-6.983545551252548e-002,-4.139692163231782e-002
	2.248006651620519e-001,-4.595211107578212e-001
	-1.000000000000000e-001,0.000000000000000e+000
	2.248006651636536e-013
	1.745411925873046e-009
	3.016454448747452e-006
18		1.818190000000000e+005,1.570044181601495e-117
	0.000000000000000e+000,0.000000000000000e+000
	0.000000000000000e+000,0.000000000000000e+000
	-7.187884244605322e-002,-4.020866123967608e-002
	2.021183159191033e-001,-4.463309817485100e-001
	-1.000000000000000e-001,0.000000000000000e+000
	2.021183159205434e-013
	1.796453456426447e-009
	2.812115755394679e-006
19		1.919200000000000e+005,1.570044181601495e-117
	0.000000000000000e+000,0.000000000000000e+000
	0.000000000000000e+000,0.000000000000000e+000
	-7.370345727425588e-002,-3.902612785878699e-002
	1.818644178018359e-001,-4.332044246837520e-001
	-1.000000000000000e-001,0.000000000000000e+000
	1.818644178031316e-013
	1.842030303358282e-009
	2.629654272574412e-006
20		2.020210000000000e+005,1.570044181601495e-117
	0.000000000000000e+000,0.000000000000000e+000
	0.000000000000000e+000,0.000000000000000e+000
	-7.533569168489480e-002,-3.786189441386650e-002
	1.637460133340131e-001,-4.202810036634486e-001
	-1.000000000000000e-001,0.000000000000000e+000
	1.637460133351799e-013
	1.882801701655021e-009
	2.466430831510520e-006
21		2.121220000000000e+005,1.570044181601495e-117
	0.000000000000000e+000,0.000000000000000e+000
	0.000000000000000e+000,0.000000000000000e+000
	-7.679880488656834e-002,-3.672462251773886e-002
	1.475049167144141e-001,-4.076568657872526e-001
	-1.000000000000000e-001,0.000000000000000e+000
	1.475049167154650e-013
	1.919348640441629e-009
	2.320119511343166e-006
22		2.222230000000000e+005,1.570044181601495e-117
	0.000000000000000e+000,0.000000000000000e+000
	0.000000000000000e+000,0.000000000000000e+000
	-7.811317161715579e-002,-3.562006604290495e-002
	1.329149608315554e-001,-3.953958811638809e-001
	-1.000000000000000e-001,0.000000000000000e+000
	1.329149608325024e-013
	1.952180057993127e-009
	2.188682838284421e-006
23		2.323240000000000e+005,1.570044181601495e-117
	0.000000000000000e+000,0.000000000000000e+000
	0.000000000000000e+000,0.000000000000000e+000
	-7.929657286539614e-002,-3.455183177907559e-002
	1.197787701468563e-001,-3.835380864905171e-001
	-1.000000000000000e-001,0.000000000000000e+000
	1.197787701477097e-013
	1.981740103609764e-009
	2.070342713460387e-006
24		2.424250000000000e+005,1.570044181601495e-117
	0.000000000000000e+000,0.000000000000000e+000
	0.000000000000000e+000,0.000000000000000e+000
	-8.036449329180191e-002,-3.352195276568346e-002
	1.079244592127018e-001,-3.721060492553322e-001
	-1.000000000000000e-001,0.000000000000000e+000
	1.079244592134707e-013
	2.008415566866428e-009
	1.963550670819809e-006
25		2.525260000000000e+005,1.570044181601495e-117
	0.000000000000000e+000,0.000000000000000e+000
	0.000000000000000e+000,0.000000000000000e+000
	-8.133040543195277e-002,-3.253131864789120e-002
	9.720247791097708e-002,-3.611096448480334e-001
	-1.000000000000000e-001,0.000000000000000e+000
	9.720247791166967e-014
	2.032542976711787e-009
	1.866959456804723e-006
26		2.626270000000000e+005,1.570044181601495e-117
	0.000000000000000e+000,0.000000000000000e+000
	0.000000000000000e+000,0.000000000000000e+000
	-8.220603070955462e-002,-3.157999764876936e-002
	8.748271411176259e-002,-3.505496305698902e-001
	-1.000000000000000e-001,0.000000000000000e+000
	8.748271411238590e-014
	2.054415121245795e-009
	1.779396929044538e-006
27		2.727280000000000e+005,1.570044181601495e-117
	0.000000000000000e+000,0.000000000000000e+000
	0.000000000000000e+000,0.000000000000000e+000
	-8.300157325537737e-002,-3.066747674891756e-002
	7.865189819681272e-002,-3.404203117161883e-001
	-1.000000000000000e-001,0.000000000000000e+000
	7.865189819737312e-014
	2.074286888307071e-009
	1.699842674462264e-006
28		2.828290000000000e+005,1.570044181601495e-117
	0.000000000000000e+000,0.000000000000000e+000
	0.000000000000000e+000,0.000000000000000e+000
	-8.372592597673191e-002,-2.979284031989609e-002
	7.061131561229550e-002,-3.307115244732594e-001
	-1.000000000000000e-001,0.000000000000000e+000
	7.061131561279861e-014
	2.092380412812825e-009
	1.627407402326809e-006
29		2.929300000000000e+005,1.570044181601495e-117
	0.000000000000000e+000,0.000000000000000e+000
	0.000000000000000e+000,0.000000000000000e+000
	-8.438685020274234e-002,-2.895490253216084e-002
	6.327481273995630e-002,-3.214101056954362e-001
	-1.000000000000000e-001,0.000000000000000e+000
	6.327481274040718e-014
	2.108889564124804e-009
	1.561314979725767e-006
30		3.030310000000000e+005,1.570044181601495e-117
	0.000000000000000e+000,0.000000000000000e+000
	0.000000000000000e+000,0.000000000000000e+000
	-8.499113115593529e-002,-2.815230508635865e-002
	5.656707110508795e-002,-3.125009777585061e-001
	-1.000000000000000e-001,0.000000000000000e+000
	5.656707110549098e-014
	2.123983829546156e-009
	1.500886884406471e-006
31		3.131320000000000e+005,1.570044181601495e-117
	0.000000000000000e+000,0.000000000000000e+000
	0.000000000000000e+000,0.000000000000000e+000
	-8.554471185906913e-002,-2.738358895407968e-002
	5.042212096129516e-002,-3.039679449085447e-001
	-1.000000000000000e-001,0.000000000000000e+000
	5.042212096165442e-014
	2.137811659168939e-009
	1.445528814093087e-006
32		3.232330000000000e+005,1.570044181601495e-117
	0.000000000000000e+000,0.000000000000000e+000
	0.000000000000000e+000,0.000000000000000e+000
	-8.605280812056236e-002,-2.664724665358969e-002
	4.478206490979511e-002,-2.957942735418413e-001
	-1.000000000000000e-001,0.000000000000000e+000
	4.478206491011420e-014
	2.150503338082234e-009
	1.394719187943764e-006
33		3.333340000000000e+005,1.570044181601495e-117
	0.000000000000000e+000,0.000000000000000e+000
	0.000000000000000e+000,0.000000000000000e+000
	-8.652000710189368e-002,-2.594175996098409e-002
	3.959598376489292e-002,-2.879631108126285e-001
	-1.000000000000000e-001,0.000000000000000e+000
	3.959598376517504e-014
	2.162173448465623e-009
	1.347999289810632e-006
34		3.434350000000000e+005,1.570044181601495e-117
	0.000000000000000e+000,0.000000000000000e+000
	0.000000000000000e+000,0.000000000000000e+000
	-8.695035174626682e-002,-2.526562673713653e-002
	3.481899936463473e-002,-2.804577824221148e-001
	-1.000000000000000e-001,0.000000000000000e+000
	3.481899936488282e-014
	2.172922978548846e-009
	1.304964825373318e-006
35		3.535360000000000e+005,1.570044181601495e-117
	0.000000000000000e+000,0.000000000000000e+000
	0.000000000000000e+000,0.000000000000000e+000
	-8.734741309282458e-002,-2.461737963549063e-002
	3.041147185633954e-002,-2.732620002818787e-001
	-1.000000000000000e-001,0.000000000000000e+000
	3.041147185655621e-014
	2.182841128910013e-009
	1.265258690717542e-006
36		3.636370000000000e+005,1.570044181601495e-117
	0.000000000000000e+000,0.000000000000000e+000
	0.000000000000000e+000,0.000000000000000e+000
	-8.771435224485895e-002,-2.399559876901469e-002
	2.633831182659125e-002,-2.663600031217416e-001
	-1.000000000000000e-001,0.000000000000000e+000
	2.633831182677892e-014
	2.192006860391954e-009
	1.228564775514106e-006
37		3.737380000000000e+005,1.570044181601495e-117
	0.000000000000000e+000,0.000000000000000e+000
	0.000000000000000e+000,0.000000000000000e+000
	-8.805397351979817e-002,-2.339891989912296e-002
	2.256839031676456e-002,-2.597366473898163e-001
	-1.000000000000000e-001,0.000000000000000e+000
	2.256839031692538e-014
	2.200490221712031e-009
	1.194602648020183e-006
38		3.838390000000000e+005,1.570044181601495e-117
	0.000000000000000e+000,0.000000000000000e+000
	0.000000000000000e+000,0.000000000000000e+000
	-8.836877009078116e-002,-2.282603932202030e-002
	1.907403218469801e-002,-2.533774614927372e-001
	-1.000000000000000e-001,0.000000000000000e+000
	1.907403218483390e-014
	2.208353489570181e-009
	1.163122990921885e-006
39		3.939400000000000e+005,1.570044181601495e-117
	0.000000000000000e+000,0.000000000000000e+000
	0.000000000000000e+000,0.000000000000000e+000
	-8.866096323693375e-002,-2.227571633655829e-002
	1.583058041214252e-002,-2.472686731897733e-001
	-1.000000000000000e-001,0.000000000000000e+000
	1.583058041225531e-014
	2.215652149038811e-009
	1.133903676306626e-006
40		4.040410000000000e+005,1.570044181601495e-117
	0.000000000000000e+000,0.000000000000000e+000
	0.000000000000000e+000,0.000000000000000e+000
	-8.893253615182986e-002,-2.174677395825338e-002
	1.281602081835918e-002,-2.413972175186941e-001
	-1.000000000000000e-001,0.000000000000000e+000
	1.281602081845050e-014
	2.222435738093243e-009
	1.106746384817014e-006
41		4.141420000000000e+005,1.570044181601495e-117
	0.000000000000000e+000,0.000000000000000e+000
	0.000000000000000e+000,0.000000000000000e+000
	-8.918526311540161e-002,-2.123809837865602e-002
	1.001065824115191e-002,-2.357507307945665e-001
	-1.000000000000000e-001,0.000000000000000e+000
	1.001065824122324e-014
	2.228748576265634e-009
	1.081473688459840e-006
42		4.242430000000000e+005,1.570044181601495e-117
	0.000000000000000e+000,0.000000000000000e+000
	0.000000000000000e+000,0.000000000000000e+000
	-8.942073471142149e-002,-2.074863754435822e-002
	7.396836613503887e-003,-2.303175348362148e-001
	-1.000000000000000e-001,0.000000000000000e+000
	7.396836613556589e-015
	2.234630394567004e-009
	1.057926528857851e-006
43		4.343440000000000e+005,1.570044181601495e-117
	0.000000000000000e+000,0.000000000000000e+000
	0.000000000000000e+000,0.000000000000000e+000
	-8.964037966809553e-002,-2.027739913555698e-002
	4.958696524933019e-003,-2.250866145275284e-001
	-1.000000000000000e-001,0.000000000000000e+000
	4.958696524968349e-015
	2.240116881034727e-009
	1.035962033190447e-006
44		4.444450000000000e+005,1.570044181601495e-117
	0.000000000000000e+000,0.000000000000000e+000
	0.000000000000000e+000,0.000000000000000e+000
	-8.984548381079083e-002,-1.982344815273727e-002
	2.681964839219551e-003,-2.200475910287519e-001
	-1.000000000000000e-001,0.000000000000000e+000
	2.681964839238661e-015
	2.245240154164612e-009
	1.015451618920918e-006
45		4.545460000000000e+005,1.570044181601495e-117
	0.000000000000000e+000,0.000000000000000e+000
	0.000000000000000e+000,0.000000000000000e+000
	-9.003720654118193e-002,-1.938590426606905e-002
	5.537717697983206e-004,-2.151906923538137e-001
	-1.000000000000000e-001,0.000000000000000e+000
	5.537717698022672e-016
	2.250029174510545e-009
	9.962793458818077e-007
46		4.646470000000000e+005,1.570044181601495e-117
	0.000000000000000e+000,0.000000000000000e+000
	0.000000000000000e+000,0.000000000000000e+000
	-9.021659519407575e-002,-1.896393904129330e-002
	-1.437508486297236e-003,-2.105067225766369e-001
	-1.000000000000000e-001,0.000000000000000e+000
	-1.437508486307478e-015
	2.254510103332551e-009
	9.783404805924251e-007
47		4.747480000000000e+005,1.570044181601495e-117
	0.000000000000000e+000,0.000000000000000e+000
	0.000000000000000e+000,0.000000000000000e+000
	-9.038459757006380e-002,-1.855677312501268e-002
	-3.302396865501054e-003,-2.059870305868268e-001
	-1.000000000000000e-001,0.000000000000000e+000
	-3.302396865524582e-015
	2.258706615638405e-009
	9.615402429936206e-007
48		4.848490000000000e+005,1.570044181601495e-117
	0.000000000000000e+000,0.000000000000000e+000
	0.000000000000000e+000,0.000000000000000e+000
	-9.054207289739621e-002,-1.816367344900161e-002
	-5.050431118563603e-003,-2.016234790564806e-001
	-1.000000000000000e-001,0.000000000000000e+000
	-5.050431118599589e-015
	2.262640173985345e-009
	9.457927102603790e-007
49		4.949500000000000e+005,1.570044181601495e-117
	0.000000000000000e+000,0.000000000000000e+000
	0.000000000000000e+000,0.000000000000000e+000
	-9.068980143874759e-002,-1.778395049558714e-002
	-6.690272449196688e-003,-1.974084140849055e-001
	-1.000000000000000e-001,0.000000000000000e+000
	-6.690272449244356e-015
	2.266330268468651e-009
	9.310198561252410e-007
50		5.050510000000000e+005,1.570044181601495e-117
	0.000000000000000e+000,0.000000000000000e+000
	0.000000000000000e+000,0.000000000000000e+000
	-9.082849292672181e-002,-1.741695565295076e-002
	-8.229799151293089e-003,-1.933346358414929e-001
	-1.000000000000000e-001,0.000000000000000e+000
	-8.229799151351719e-015
	2.269794627428969e-009
	9.171507073278196e-007
51		5.151520000000000e+005,1.570044181601495e-117
	0.000000000000000e+000,0.000000000000000e+000
	0.000000000000000e+000,0.000000000000000e+000
	-9.095879398507671e-002,-1.706207867931869e-002
	-9.676188987258184e-003,-1.893953704172942e-001
	-1.000000000000000e-001,0.000000000000000e+000
	-9.676188987327127e-015
	2.273049402788997e-009
	9.041206014923293e-007
52		5.252530000000000e+005,1.570044181601495e-117
	0.000000000000000e+000,0.000000000000000e+000
	0.000000000000000e+000,0.000000000000000e+000
	-9.108129466993689e-002,-1.671874528764719e-002
	-1.103599179788819e-002,-1.855842430141364e-001
	-1.000000000000000e-001,0.000000000000000e+000
	-1.103599179796682e-014
	2.276109333508942e-009
	8.918705330063113e-007
53		5.353540000000000e+005,1.570044181601495e-117
	0.000000000000000e+000,0.000000000000000e+000
	0.000000000000000e+000,0.000000000000000e+000
	-9.119653424604150e-002,-1.638641485696988e-002
	-1.231519362085101e-002,-1.818952525397323e-001
	-1.000000000000000e-001,0.000000000000000e+000
	-1.231519362093876e-014
	2.278987889815578e-009
	8.803465753958502e-007
54		5.454550000000000e+005,1.570044181601495e-117
	0.000000000000000e+000,0.000000000000000e+000
	0.000000000000000e+000,0.000000000000000e+000
	-9.130500629677883e-002,-1.606457827259036e-002
	-1.351927341395822e-002,-1.783227476330217e-001
	-1.000000000000000e-001,0.000000000000000e+000
	-1.351927341405454e-014
	2.281697400875808e-009
	8.694993703221172e-007
55		5.555560000000000e+005,1.570044181601495e-117
	0.000000000000000e+000,0.000000000000000e+000
	0.000000000000000e+000,0.000000000000000e+000
	-9.140716325292871e-002,-1.575275589442938e-002
	-1.465325332587642e-002,-1.748614041120748e-001
	-1.000000000000000e-001,0.000000000000000e+000
	-1.465325332598083e-014
	2.284249167895196e-009
	8.592836747071298e-007
56		5.656570000000000e+005,1.570044181601495e-117
	0.000000000000000e+000,0.000000000000000e+000
	0.000000000000000e+000,0.000000000000000e+000
	-9.150342041327138e-002,-1.545049565079736e-002
	-1.572174332636979e-002,-1.715062038142633e-001
	-1.000000000000000e-001,0.000000000000000e+000
	-1.572174332648181e-014
	2.286653564592831e-009
	8.496579586728626e-007
57		5.757580000000000e+005,1.570044181601495e-117
	0.000000000000000e+000,0.000000000000000e+000
	0.000000000000000e+000,0.000000000000000e+000
	-9.159415952020478e-002,-1.515737125345902e-002
	-1.672898089697252e-002,-1.682524147828195e-001
	-1.000000000000000e-001,0.000000000000000e+000
	-1.672898089709171e-014
	2.288920126459282e-009
	8.405840479795228e-007
58		5.858590000000000e+005,1.570044181601495e-117
	0.000000000000000e+000,0.000000000000000e+000
	0.000000000000000e+000,0.000000000000000e+000
	-9.167973194496588e-002,-1.487298052892871e-002
	-1.767886638812112e-002,-1.650955727435977e-001
	-1.000000000000000e-001,0.000000000000000e+000
	-1.767886638824708e-014
	2.291057630355479e-009
	8.320268055034120e-007
59		5.959600000000000e+005,1.570044181601495e-117
	0.000000000000000e+000,0.000000000000000e+000
	0.000000000000000e+000,0.000000000000000e+000
	-9.176046152974777e-002,-1.459694386036153e-002
	-1.857499456770248e-002,-1.620314638094912e-001
	-1.000000000000000e-001,0.000000000000000e+000
	-1.857499456783482e-014
	2.293074165502050e-009
	8.239538470252229e-007
60		6.060610000000000e+005,1.570044181601495e-117
	0.000000000000000e+000,0.000000000000000e+000
	0.000000000000000e+000,0.000000000000000e+000
	-9.183664712775078e-002,-1.432890273409692e-002
	-1.942068281655993e-002,-1.590561083465293e-001
	-1.000000000000000e-001,0.000000000000000e+000
	-1.942068281669830e-014
	2.294977196917589e-009
	8.163352872249228e-007
61		6.161620000000000e+005,1.570044181601495e-117
	0.000000000000000e+000,0.000000000000000e+000
	0.000000000000000e+000,0.000000000000000e+000
	-9.190856487684355e-002,-1.406851838479693e-002
	-2.021899636697086e-002,-1.561657459344119e-001
	-1.000000000000000e-001,0.000000000000000e+000
	-2.021899636711492e-014
	2.296773622216932e-009
	8.091435123156449e-007
62		6.262630000000000e+005,1.570044181601495e-117
	0.000000000000000e+000,0.000000000000000e+000
	0.000000000000000e+000,0.000000000000000e+000
	-9.197647023790248e-002,-1.381547053314637e-002
	-2.097277092896471e-002,-1.533568213545153e-001
	-1.000000000000000e-001,0.000000000000000e+000
	-2.097277092911414e-014
	2.298469822530836e-009
	8.023529762097524e-007
63		6.363640000000000e+005,1.570044181601495e-117
	0.000000000000000e+000,0.000000000000000e+000
	0.000000000000000e+000,0.000000000000000e+000
	-9.204059982493175e-002,-1.356945621020868e-002
	-2.168463300533280e-002,-1.506259715398085e-001
	-1.000000000000000e-001,0.000000000000000e+000
	-2.168463300548730e-014
	2.300071708216349e-009
	7.959400175068255e-007
64		6.464650000000000e+005,1.570044181601495e-117
	0.000000000000000e+000,0.000000000000000e+000
	0.000000000000000e+000,0.000000000000000e+000
	-9.210117305064858e-002,-1.333018866272561e-002
	-2.235701815823249e-002,-1.479700134232756e-001
	-1.000000000000000e-001,0.000000000000000e+000
	-2.235701815839178e-014
	2.301584759954861e-009
	7.898826949351426e-007
65		6.565660000000000e+005,1.570044181601495e-117
	0.000000000000000e+000,0.000000000000000e+000
	0.000000000000000e+000,0.000000000000000e+000
	-9.215839360826528e-002,-1.309739633389019e-002
	-2.299218745751270e-002,-1.453859326241190e-001
	-1.000000000000000e-001,0.000000000000000e+000
	-2.299218745767651e-014
	2.303014065774715e-009
	7.841606391734728e-007
66		6.666670000000000e+005,1.570044181601495e-117
	0.000000000000000e+000,0.000000000000000e+000
	0.000000000000000e+000,0.000000000000000e+000
	-9.221245080764466e-002,-1.287082191439131e-002
	-2.359224231253426e-002,-1.428708729140046e-001
	-1.000000000000000e-001,0.000000000000000e+000
	-2.359224231270236e-014
	2.304364354431281e-009
	7.787549192355343e-007
67		6.767680000000000e+005,1.570044181601495e-117
	0.000000000000000e+000,0.000000000000000e+000
	0.000000000000000e+000,0.000000000000000e+000
	-9.226352078179295e-002,-1.265022145881377e-002
	-2.415913786468608e-002,-1.404221264087760e-001
	-1.000000000000000e-001,0.000000000000000e+000
	-2.415913786485820e-014
	2.305640025525107e-009
	7.736479218207052e-007
68		6.868690000000000e+005,1.570044181601495e-117
	0.000000000000000e+000,0.000000000000000e+000
	0.000000000000000e+000,0.000000000000000e+000
	-9.231176757773206e-002,-1.243536356276813e-002
	-2.469469509646908e-002,-1.380371244342916e-001
	-1.000000000000000e-001,0.000000000000000e+000
	-2.469469509664503e-014
	2.306845176772202e-009
	7.688232422267944e-007
69		6.969700000000000e+005,1.570044181601495e-117
	0.000000000000000e+000,0.000000000000000e+000
	0.000000000000000e+000,0.000000000000000e+000
	-9.235734414412224e-002,-1.222602859641467e-002
	-2.520061179447369e-002,-1.357134290182587e-001
	-1.000000000000000e-001,0.000000000000000e+000
	-2.520061179465323e-014
	2.307983628657203e-009
	7.642655855877768e-007
70		7.070710000000000e+005,1.570044181601495e-117
	0.000000000000000e+000,0.000000000000000e+000
	0.000000000000000e+000,0.000000000000000e+000
	-9.240039322655175e-002,-1.202200799033005e-002
	-2.567847248742440e-002,-1.334487249630884e-001
	-1.000000000000000e-001,0.000000000000000e+000
	-2.567847248760736e-014
	2.309058946802197e-009
	7.599606773448256e-007
71		7.171720000000000e+005,1.570044181601495e-117
	0.000000000000000e+000,0.000000000000000e+000
	0.000000000000000e+000,0.000000000000000e+000
	-9.244104818014007e-002,-1.182310356993939e-002
	-2.612975746637605e-002,-1.312408124578472e-001
	-1.000000000000000e-001,0.000000000000000e+000
	-2.612975746656222e-014
	2.310074462283591e-009
	7.558951819859936e-007
72		7.272730000000000e+005,1.570044181601495e-117
	0.000000000000000e+000,0.000000000000000e+000
	0.000000000000000e+000,0.000000000000000e+000
	-9.247943370799272e-002,-1.162912693499969e-002
	-2.655585098183542e-002,-1.290876001902935e-001
	-1.000000000000000e-001,0.000000000000000e+000
	-2.655585098202463e-014
	2.311033290029494e-009
	7.520566292007284e-007
73		7.373740000000000e+005,1.570044181601495e-117
	0.000000000000000e+000,0.000000000000000e+000
	0.000000000000000e+000,0.000000000000000e+000
	-9.251566653307543e-002,-1.143989888087049e-002
	-2.695804870181025e-002,-1.269870989227681e-001
	-1.000000000000000e-001,0.000000000000000e+000
	-2.695804870200233e-014
	2.311938345661242e-009
	7.484333466924576e-007
74		7.474750000000000e+005,1.570044181601495e-117
	0.000000000000000e+000,0.000000000000000e+000
	0.000000000000000e+000,0.000000000000000e+000
	-9.254985601022379e-002,-1.125524885854299e-002
	-2.733756450534590e-002,-1.249374154983183e-001
	-1.000000000000000e-001,0.000000000000000e+000
	-2.733756450554068e-014
	2.312792360732939e-009
	7.450143989776210e-007
75		7.575760000000000e+005,1.570044181601495e-117
	0.000000000000000e+000,0.000000000000000e+000
	0.000000000000000e+000,0.000000000000000e+000
	-9.258210468426008e-002,-1.107501447062119e-002
	-2.769553667782431e-002,-1.229367472459023e-001
	-1.000000000000000e-001,0.000000000000000e+000
	-2.769553667802163e-014
	2.313597896708159e-009
	7.417895315739926e-007
76		7.676770000000000e+005,1.570044181601495e-117
	0.000000000000000e+000,0.000000000000000e+000
	0.000000000000000e+000,0.000000000000000e+000
	-9.261250879953013e-002,-1.089904100065562e-002
	-2.803303356701459e-002,-1.209833767558204e-001
	-1.000000000000000e-001,0.000000000000000e+000
	-2.803303356721432e-014
	2.314357357656970e-009
	7.387491200469871e-007
77		7.777780000000000e+005,1.570044181601495e-117
	0.000000000000000e+000,0.000000000000000e+000
	0.000000000000000e+000,0.000000000000000e+000
	-9.264115876559789e-002,-1.072718097342440e-002
	-2.835105875245204e-002,-1.190756669986719e-001
	-1.000000000000000e-001,0.000000000000000e+000
	-2.835105875265403e-014
	2.315073001910687e-009
	7.358841234402112e-007
78		7.878790000000000e+005,1.570044181601495e-117
	0.000000000000000e+000,0.000000000000000e+000
	0.000000000000000e+000,0.000000000000000e+000
	-9.266813958332398e-002,-1.055929374393597e-002
	-2.865055577506950e-002,-1.172120567631339e-001
	-1.000000000000000e-001,0.000000000000000e+000
	-2.865055577527364e-014
	2.315746952697715e-009
	7.331860416676020e-007
79		7.979800000000000e+005,1.570044181601495e-117
	0.000000000000000e+000,0.000000000000000e+000
	0.000000000000000e+000,0.000000000000000e+000
	-9.269353123510665e-002,-1.039524511309579e-002
	-2.893241246901354e-002,-1.153910563897196e-001
	-1.000000000000000e-001,0.000000000000000e+000
	-2.893241246921968e-014